<?xml version="1.0"?>
<VTKFile type="UnstructuredGrid"  version="0.1"  >
<UnstructuredGrid>
<Piece  NumberOfPoints="44" NumberOfCells="53">
<Points>
<DataArray  type="Float64"  NumberOfComponents="3"  format="ascii">0.7499999999999803 0.661437827766165 0  0.7500000000000145 -0.6614378277661348 0  0.526969752823238 0.7671275847623773 0  0.2823373700742501 0.7998049959234477 0  0.03938605064525275 0.7563599469840542 0  -0.1787610039160617 0.6409273758619496 0  -0.3513413695919441 0.4644937246703023 0  -0.4619294900689854 0.2438512910837587 0  -0.5 -2.796846631859217e-14 0  -0.4619294900689684 -0.2438512910838116 0  -0.3513413695919125 -0.4644937246703467 0  -0.1787610039160192 -0.6409273758619813 0  0.03938605064530076 -0.7563599469840707 0  0.2823373700742997 -0.7998049959234487 0  0.5269697528232832 -0.7671275847623639 0  0.5592206419351022 0.829018862049406 0  0.3323826437595719 0.9431446220635505 0  0.08411255736769939 0.9964562597992275 0  -0.169581120729252 0.9855162319780486 0  -0.4123401799237663 0.9110299534156031 0  -0.6285114756559345 0.7778003117566871 0  -0.804156246781165 0.5944179764802121 0  -0.9279488892097975 0.372707471100732 0  -0.9919072327446917 0.1269647259232578 0  -0.9919072327446875 -0.1269647259232906 0  -0.9279488892097851 -0.3727074711007627 0  -0.8041562467811444 -0.5944179764802401 0  -0.6285114756559067 -0.7778003117567096 0  -0.4123401799237318 -0.9110299534156188 0  -0.1695811207292129 -0.9855162319780553 0  0.08411255736774008 -0.996456259799224 0  0.3323826437596121 -0.9431446220635363 0  0.5592206419351382 -0.8290188620493818 0  -0.6962059892822664 -0.131872198986407 0  -0.6964525776826395 0.133270612208572 0  -0.5685653684714472 0.5162372997590169 0  -0.5685653684714245 -0.5162372997590582 0  -0.3982771626725766 0.6876223975273529 0  -0.3982771626725453 -0.687622397527382 0  -0.839768810084549 0.0002497166467979979 0  -0.2367614891104768 0.805575036768336 0  -0.2367614891104427 -0.8055750367683553 0  -0.741785536093046 -0.3310084938889283 0  -0.7418266341597876 0.3312415627592583 0  </DataArray>
</Points>
<Cells>
<DataArray  type="UInt32"  Name="connectivity"  format="ascii">12 13 30  3 4 17  20 35 37  27 36 38  20 21 35  26 27 36  24 33 42  23 34 43  12 29 30  4 17 18  12 29 41  4 18 40  24 25 42  22 23 43  8 33 34  33 34 39  6 35 37  10 36 38  11 12 41  4 5 40  24 33 39  23 34 39  9 33 42  7 34 43  9 36 42  7 35 43  8 9 33  7 8 34  6 7 35  9 10 36  10 11 38  5 6 37  21 35 43  26 36 42  21 22 43  25 26 42  19 20 37  27 28 38  23 24 39  11 38 41  5 37 40  18 19 40  28 29 41  19 37 40  28 38 41  0 2 15  1 14 32  2 3 16  2 15 16  3 16 17  13 14 31  13 30 31  14 31 32  </DataArray>
<DataArray  type="UInt32"  Name="offsets"  format="ascii">3 6 9 12 15 18 21 24 27 30 33 36 39 42 45 48 51 54 57 60 63 66 69 72 75 78 81 84 87 90 93 96 99 102 105 108 111 114 117 120 123 126 129 132 135 138 141 144 147 150 153 156 159 </DataArray>
<DataArray  type="UInt8"  Name="types"  format="ascii">5 5 5 5 5 5 5 5 5 5 5 5 5 5 5 5 5 5 5 5 5 5 5 5 5 5 5 5 5 5 5 5 5 5 5 5 5 5 5 5 5 5 5 5 5 5 5 5 5 5 5 5 5 </DataArray>
</Cells>
<PointData  Scalars="u"> 
<DataArray  type="Float64"  Name="u"  format="ascii">2.2509948889038643e+01  2.2509744604024583e+01  1.8991871216533898e+01  1.5816608598160277e+01  1.2996339480984403e+01  1.0387122670740760e+01  7.9203138041743673e+00  5.7955404954764687e+00  4.7878135692403401e+00  5.7958673991408975e+00  7.9201801425644307e+00  1.0386923839472271e+01  1.2996135496433524e+01  1.5816404327568293e+01  1.8991666931579491e+01  1.9029291296962388e+01  1.6133945249383356e+01  1.3747520248967664e+01  1.1654886587949605e+01  9.8491371089655821e+00  8.1732403657190016e+00  6.4935103992464835e+00  4.4782793482418448e+00  1.0000000000000000e+00  1.0000000000000000e+00  4.4781529144989056e+00  6.4931611902468589e+00  8.1729886398221474e+00  9.8489231906474135e+00  1.1654680835247710e+01  1.3747315766662288e+01  1.6133740951574378e+01  1.9029087011556332e+01  4.2351754303266160e+00  4.2390469952671621e+00  7.0827448009251466e+00  7.0824852085475953e+00  8.9932831177482022e+00  8.9930732335177677e+00  2.6661854411678005e+00  1.0638719599840128e+01  1.0638513766776779e+01  5.1090000532683426e+00  5.1109476215466065e+00  </DataArray> 
</PointData> 
</Piece>
</UnstructuredGrid>
</VTKFile>